! TOUCHSTONE file generated by CST MICROWAVE STUDIO
! Date and time: Wed Nov 23 10:12:08 2022
! Project name: Ant3Proto.cst
! Parameters = {AntCapLenAddition=9; CapShortLen=1; ShortToGND=0.3; waterdim=0.1}
! Header version: 2018
! Port assignment regex: !\s*Touchstone port\s*([0-9]+)\s*=\s*(CST MWS port|CST DS port)\s*([0-9]+|Zmin|Zmax)\s*\(\"(.*)\"\)(\s*mode\s*([0-9]+))?.*
! Touchstone port assignment:
! Touchstone port 1 = CST MWS port 1 ("")
# MHz S RI R 50
600                     0.510573       -0.840161
600.4                   0.507542       -0.841729
600.8                   0.504542       -0.843306
601.2                   0.501572       -0.844895
601.6                   0.498627       -0.846498
602                     0.495706       -0.848117
602.4                   0.492805       -0.849754
602.8                   0.489922       -0.851411
603.2                   0.487053       -0.853089
603.6                   0.484195       -0.854788
604                     0.481345       -0.856511
604.4                   0.478499       -0.858256
604.8                   0.475654       -0.860025
605.2                   0.472807       -0.861816
605.6                   0.469955        -0.86363
606                     0.467094       -0.865467
606.4                   0.464222       -0.867324
606.8                   0.461335         -0.8692
607.2                    0.45843       -0.871095
607.6                   0.455506       -0.873007
608                     0.452559       -0.874933
608.4                   0.449588       -0.876871
608.8                   0.446589        -0.87882
609.2                   0.443562       -0.880776
609.6                   0.440506       -0.882738
610                     0.437417       -0.884701
610.4                   0.434295       -0.886665
610.8                    0.43114       -0.888625
611.2                   0.427951       -0.890579
611.6                   0.424728       -0.892524
612                      0.42147       -0.894457
612.4                   0.418176       -0.896375
612.8                    0.41485       -0.898274
613.2                    0.41149       -0.900154
613.6                   0.408097       -0.902009
614                     0.404672       -0.903839
614.4                   0.401219       -0.905639
614.8                   0.397736       -0.907409
615.2                   0.394226       -0.909145
615.6                   0.390692       -0.910846
616                     0.387135        -0.91251
616.4                   0.383558       -0.914134
616.8                   0.379963       -0.915717
617.2                   0.376352       -0.917259
617.6                   0.372728       -0.918758
618                     0.369093       -0.920213
618.4                   0.365451       -0.921623
618.8                   0.361804       -0.922989
619.2                   0.358154        -0.92431
619.6                   0.354505       -0.925585
620                     0.350859       -0.926816
620.4                   0.347219       -0.928003
620.8                   0.343587       -0.929146
621.2                   0.339966       -0.930247
621.6                   0.336358       -0.931307
622                     0.332766       -0.932326
622.4                   0.329191       -0.933307
622.8                   0.325636       -0.934251
623.2                   0.322103        -0.93516
623.6                   0.318593       -0.936036
624                     0.315107        -0.93688
624.4                   0.311648       -0.937696
624.8                   0.308215       -0.938486
625.2                   0.304811       -0.939251
625.6                   0.301436       -0.939994
626                     0.298089       -0.940718
626.4                   0.294773       -0.941425
626.8                   0.291486       -0.942118
627.2                   0.288229       -0.942798
627.6                   0.285001       -0.943469
628                     0.281802       -0.944132
628.4                   0.278631        -0.94479
628.8                   0.275486       -0.945446
629.2                   0.272369         -0.9461
629.6                   0.269276       -0.946756
630                     0.266206       -0.947415
630.4                   0.263159       -0.948079
630.8                   0.260132       -0.948748
631.2                   0.257124       -0.949426
631.6                   0.254131       -0.950112
632                     0.251154       -0.950809
632.4                    0.24819       -0.951516
632.8                   0.245237       -0.952235
633.2                   0.242292       -0.952966
633.6                   0.239353        -0.95371
634                     0.236419       -0.954466
634.4                   0.233487       -0.955235
634.8                   0.230555       -0.956016
635.2                   0.227622        -0.95681
635.6                   0.224684       -0.957614
636                     0.221741        -0.95843
636.4                   0.218789       -0.959255
636.8                   0.215828       -0.960088
637.2                   0.212856        -0.96093
637.6                   0.209872       -0.961777
638                     0.206873       -0.962629
638.4                   0.203859       -0.963484
638.8                   0.200829       -0.964341
639.2                   0.197782       -0.965197
639.6                   0.194716       -0.966052
640                     0.191631       -0.966902
640.4                   0.188528       -0.967747
640.8                   0.185405       -0.968584
641.2                   0.182262       -0.969411
641.6                   0.179099       -0.970227
642                     0.175918       -0.971029
642.4                   0.172717       -0.971816
642.8                   0.169498       -0.972585
643.2                   0.166262       -0.973336
643.6                   0.163008       -0.974066
644                     0.159739       -0.974773
644.4                   0.156455       -0.975457
644.8                   0.153157       -0.976116
645.2                   0.149848       -0.976748
645.6                   0.146527       -0.977352
646                     0.143198       -0.977928
646.4                   0.139861       -0.978474
646.8                   0.136518       -0.978989
647.2                   0.133172       -0.979474
647.6                   0.129823       -0.979927
648                     0.126474       -0.980349
648.4                   0.123126       -0.980738
648.8                   0.119782       -0.981096
649.2                   0.116442       -0.981422
649.6                    0.11311       -0.981717
650                     0.109787       -0.981981
650.4                   0.106473       -0.982215
650.8                   0.103172       -0.982419
651.2                  0.0998843       -0.982595
651.6                  0.0966119       -0.982743
652                    0.0933556       -0.982865
652.4                  0.0901172       -0.982962
652.8                  0.0868978       -0.983035
653.2                  0.0836986       -0.983085
653.6                    0.08052       -0.983115
654                     0.077363       -0.983125
654.4                  0.0742283       -0.983118
654.8                  0.0711167       -0.983095
655.2                  0.0680282       -0.983057
655.6                  0.0649631       -0.983007
656                    0.0619214       -0.982946
656.4                  0.0589033       -0.982876
656.8                   0.055908       -0.982798
657.2                   0.052936       -0.982715
657.6                  0.0499863       -0.982628
658                    0.0470581       -0.982538
658.4                   0.044151       -0.982446
658.8                  0.0412642       -0.982356
659.2                  0.0383965       -0.982267
659.6                  0.0355468       -0.982181
660                    0.0327139       -0.982099
660.4                  0.0298966       -0.982022
660.8                  0.0270937       -0.981951
661.2                  0.0243035       -0.981887
661.6                  0.0215248        -0.98183
662                     0.018756       -0.981781
662.4                  0.0159955       -0.981741
662.8                  0.0132421        -0.98171
663.2                  0.0104936       -0.981687
663.6                 0.00774874       -0.981673
664                   0.00500601       -0.981668
664.4                 0.00226387       -0.981671
664.8               -0.000478955       -0.981682
665.2                -0.00322445         -0.9817
665.6                -0.00597341       -0.981726
666                  -0.00872759       -0.981757
666.4                  -0.011488       -0.981794
666.8                 -0.0142559       -0.981835
667.2                 -0.0170322       -0.981879
667.6                  -0.019818       -0.981925
668                   -0.0226143       -0.981972
668.4                 -0.0254214       -0.982018
668.8                 -0.0282405       -0.982063
669.2                 -0.0310714       -0.982104
669.6                 -0.0339153       -0.982141
670                   -0.0367718       -0.982172
670.4                 -0.0396414       -0.982195
670.8                 -0.0425239       -0.982209
671.2                 -0.0454191       -0.982213
671.6                 -0.0483273       -0.982205
672                   -0.0512473       -0.982184
672.4                 -0.0541792       -0.982148
672.8                 -0.0571223       -0.982096
673.2                 -0.0600756       -0.982027
673.6                 -0.0630385        -0.98194
674                   -0.0660101       -0.981833
674.4                 -0.0689895       -0.981706
674.8                 -0.0719754       -0.981558
675.2                 -0.0749667       -0.981388
675.6                 -0.0779621       -0.981194
676                   -0.0809606       -0.980978
676.4                 -0.0839605       -0.980737
676.8                 -0.0869607       -0.980472
677.2                 -0.0899596       -0.980182
677.6                 -0.0929563       -0.979868
678                   -0.0959488       -0.979529
678.4                 -0.0989361       -0.979165
678.8                  -0.101916       -0.978777
679.2                  -0.104889       -0.978365
679.6                  -0.107852       -0.977929
680                    -0.110804        -0.97747
680.4                  -0.113744       -0.976989
680.8                  -0.116672       -0.976486
681.2                  -0.119585       -0.975963
681.6                  -0.122483       -0.975419
682                    -0.125364       -0.974857
682.4                  -0.128229       -0.974278
682.8                  -0.131077       -0.973681
683.2                  -0.133906        -0.97307
683.6                  -0.136716       -0.972445
684                    -0.139507       -0.971807
684.4                  -0.142279       -0.971158
684.8                  -0.145031       -0.970498
685.2                  -0.147764       -0.969831
685.6                  -0.150477       -0.969156
686                     -0.15317       -0.968475
686.4                  -0.155844       -0.967789
686.8                    -0.1585         -0.9671
687.2                  -0.161137        -0.96641
687.6                  -0.163757       -0.965718
688                    -0.166359       -0.965027
688.4                  -0.168946       -0.964337
688.8                  -0.171517        -0.96365
689.2                  -0.174074       -0.962965
689.6                  -0.176618       -0.962286
690                    -0.179149        -0.96161
690.4                   -0.18167       -0.960941
690.8                  -0.184181       -0.960277
691.2                  -0.186683        -0.95962
691.6                  -0.189179       -0.958971
692                    -0.191668       -0.958328
692.4                  -0.194152       -0.957692
692.8                  -0.196634       -0.957063
693.2                  -0.199113       -0.956441
693.6                  -0.201592       -0.955826
694                    -0.204072       -0.955217
694.4                  -0.206553       -0.954615
694.8                  -0.209037       -0.954018
695.2                  -0.211525       -0.953425
695.6                  -0.214019       -0.952837
696                    -0.216519       -0.952251
696.4                  -0.219025       -0.951668
696.8                   -0.22154       -0.951086
697.2                  -0.224064       -0.950505
697.6                  -0.226596       -0.949922
698                    -0.229139       -0.949338
698.4                  -0.231692        -0.94875
698.8                  -0.234256       -0.948158
699.2                  -0.236831        -0.94756
699.6                  -0.239417       -0.946954
700                    -0.242014       -0.946341
700.4                  -0.244622       -0.945718
700.8                  -0.247241       -0.945084
701.2                   -0.24987       -0.944438
701.6                   -0.25251       -0.943778
702                    -0.255159       -0.943105
702.4                  -0.257817       -0.942415
702.8                  -0.260484       -0.941709
703.2                  -0.263158       -0.940985
703.6                  -0.265839       -0.940242
704                    -0.268526        -0.93948
704.4                  -0.271217       -0.938698
704.8                  -0.273913       -0.937895
705.2                   -0.27661       -0.937071
705.6                   -0.27931       -0.936224
706                    -0.282009       -0.935355
706.4                  -0.284708       -0.934464
706.8                  -0.287404        -0.93355
707.2                  -0.290097       -0.932613
707.6                  -0.292785       -0.931653
708                    -0.295467       -0.930671
708.4                  -0.298142       -0.929666
708.8                  -0.300809       -0.928639
709.2                  -0.303467       -0.927591
709.6                  -0.306113       -0.926521
710                    -0.308749       -0.925432
710.4                  -0.311371       -0.924322
710.8                  -0.313981       -0.923194
711.2                  -0.316576       -0.922049
711.6                  -0.319156       -0.920886
712                     -0.32172       -0.919707
712.4                  -0.324268       -0.918513
712.8                    -0.3268       -0.917306
713.2                  -0.329314       -0.916086
713.6                  -0.331811       -0.914855
714                     -0.33429       -0.913613
714.4                  -0.336752       -0.912363
714.8                  -0.339197       -0.911105
715.2                  -0.341623        -0.90984
715.6                  -0.344034        -0.90857
716                    -0.346427       -0.907296
716.4                  -0.348804       -0.906018
716.8                  -0.351165       -0.904739
717.2                  -0.353511       -0.903459
717.6                  -0.355843       -0.902178
718                    -0.358162       -0.900899
718.4                  -0.360469       -0.899621
718.8                  -0.362763       -0.898346
719.2                  -0.365048       -0.897073
719.6                  -0.367324       -0.895804
720                     -0.36959        -0.89454
720.4                  -0.371851       -0.893279
720.8                  -0.374105       -0.892024
721.2                  -0.376355       -0.890773
721.6                  -0.378602       -0.889527
722                    -0.380847       -0.888286
722.4                  -0.383092       -0.887049
722.8                  -0.385337       -0.885817
723.2                  -0.387584       -0.884589
723.6                  -0.389834       -0.883364
724                    -0.392089       -0.882141
724.4                  -0.394348       -0.880921
724.8                  -0.396614       -0.879702
725.2                  -0.398888       -0.878483
725.6                  -0.401169       -0.877264
726                     -0.40346       -0.876043
726.4                  -0.405761       -0.874819
726.8                  -0.408072       -0.873591
727.2                  -0.410394       -0.872357
727.6                  -0.412728       -0.871118
728                    -0.415073        -0.86987
728.4                  -0.417431       -0.868614
728.8                  -0.419801       -0.867346
729.2                  -0.422183       -0.866067
729.6                  -0.424576       -0.864774
730                    -0.426982       -0.863467
730.4                    -0.4294       -0.862143
730.8                  -0.431829       -0.860803
731.2                  -0.434268       -0.859443
731.6                  -0.436717       -0.858064
732                    -0.439176       -0.856663
732.4                  -0.441643       -0.855241
732.8                  -0.444118       -0.853795
733.2                  -0.446599       -0.852325
733.6                  -0.449086        -0.85083
734                    -0.451577       -0.849309
734.4                  -0.454071       -0.847761
734.8                  -0.456568       -0.846187
735.2                  -0.459065       -0.844584
735.6                  -0.461561       -0.842954
736                    -0.464056       -0.841295
736.4                  -0.466548       -0.839607
736.8                  -0.469034       -0.837891
737.2                  -0.471515       -0.836147
737.6                  -0.473989       -0.834374
738                    -0.476454       -0.832573
738.4                   -0.47891       -0.830745
738.8                  -0.481355       -0.828889
739.2                  -0.483787       -0.827007
739.6                  -0.486207       -0.825098
740                    -0.488613       -0.823165
740.4                  -0.491003       -0.821207
740.8                  -0.493377       -0.819226
741.2                  -0.495736       -0.817222
741.6                  -0.498076       -0.815197
742                    -0.500399       -0.813151
742.4                  -0.502704       -0.811086
742.8                   -0.50499       -0.809004
743.2                  -0.507258       -0.806904
743.6                  -0.509506       -0.804789
744                    -0.511736        -0.80266
744.4                  -0.513947       -0.800517
744.8                   -0.51614       -0.798362
745.2                  -0.518314       -0.796196
745.6                  -0.520471        -0.79402
746                    -0.522612       -0.791835
746.4                  -0.524736       -0.789643
746.8                  -0.526844       -0.787443
747.2                  -0.528938       -0.785237
747.6                  -0.531019       -0.783026
748                    -0.533087       -0.780809
748.4                  -0.535144       -0.778589
748.8                  -0.537191       -0.776365
749.2                  -0.539229       -0.774137
749.6                   -0.54126       -0.771906
750                    -0.543284       -0.769671
750.4                  -0.545304       -0.767433
750.8                   -0.54732       -0.765192
751.2                  -0.549334       -0.762946
751.6                  -0.551348       -0.760697
752                    -0.553362       -0.758442
752.4                  -0.555379       -0.756182
752.8                  -0.557399       -0.753915
753.2                  -0.559423        -0.75164
753.6                  -0.561453       -0.749357
754                     -0.56349       -0.747064
754.4                  -0.565535        -0.74476
754.8                  -0.567589       -0.742443
755.2                  -0.569652       -0.740112
755.6                  -0.571726       -0.737765
756                     -0.57381       -0.735401
756.4                  -0.575906       -0.733017
756.8                  -0.578013       -0.730612
757.2                  -0.580133       -0.728183
757.6                  -0.582264        -0.72573
758                    -0.584407        -0.72325
758.4                  -0.586562        -0.72074
758.8                  -0.588728         -0.7182
759.2                  -0.590905       -0.715627
759.6                  -0.593091       -0.713018
760                    -0.595287       -0.710373
760.4                  -0.597492       -0.707688
760.8                  -0.599704       -0.704964
761.2                  -0.601921       -0.702196
761.6                  -0.604143       -0.699384
762                    -0.606368       -0.696527
762.4                  -0.608595       -0.693622
762.8                  -0.610821       -0.690669
763.2                  -0.613046       -0.687665
763.6                  -0.615266        -0.68461
764                    -0.617481       -0.681502
764.4                  -0.619688       -0.678342
764.8                  -0.621885       -0.675127
765.2                   -0.62407       -0.671857
765.6                   -0.62624       -0.668532
766                    -0.628394       -0.665152
766.4                   -0.63053       -0.661715
766.8                  -0.632645       -0.658222
767.2                  -0.634737       -0.654674
767.6                  -0.636803       -0.651069
768                    -0.638843       -0.647409
768.4                  -0.640854       -0.643694
768.8                  -0.642833       -0.639925
769.2                   -0.64478       -0.636102
769.6                  -0.646691       -0.632226
770                    -0.648567       -0.628298
770.4                  -0.650405       -0.624318
770.8                  -0.652203       -0.620289
771.2                   -0.65396       -0.616211
771.6                  -0.655676       -0.612085
772                    -0.657348       -0.607913
772.4                  -0.658977       -0.603695
772.8                  -0.660562       -0.599433
773.2                    -0.6621       -0.595128
773.6                  -0.663593       -0.590782
774                     -0.66504       -0.586396
774.4                  -0.666441       -0.581969
774.8                  -0.667795       -0.577505
775.2                  -0.669102       -0.573004
775.6                  -0.670364       -0.568466
776                    -0.671579       -0.563892
776.4                  -0.672749       -0.559283
776.8                  -0.673873        -0.55464
777.2                  -0.674953       -0.549963
777.6                  -0.675989       -0.545252
778                    -0.676982       -0.540507
778.4                  -0.677931       -0.535728
778.8                  -0.678839       -0.530915
779.2                  -0.679705       -0.526067
779.6                  -0.680531       -0.521184
780                    -0.681316       -0.516264
780.4                  -0.682062       -0.511306
780.8                  -0.682769        -0.50631
781.2                  -0.683437       -0.501274
781.6                  -0.684067       -0.496195
782                    -0.684659       -0.491073
782.4                  -0.685212       -0.485905
782.8                  -0.685727       -0.480689
783.2                  -0.686203       -0.475422
783.6                  -0.686639       -0.470102
784                    -0.687034       -0.464726
784.4                  -0.687388       -0.459292
784.8                  -0.687698       -0.453796
785.2                  -0.687964       -0.448235
785.6                  -0.688182       -0.442608
786                    -0.688351       -0.436909
786.4                  -0.688468       -0.431137
786.8                   -0.68853       -0.425289
787.2                  -0.688533        -0.41936
787.6                  -0.688474       -0.413349
788                    -0.688348       -0.407252
788.4                  -0.688151       -0.401066
788.8                  -0.687878        -0.39479
789.2                  -0.687524        -0.38842
789.6                  -0.687084       -0.381955
790                     -0.68655       -0.375392
790.4                  -0.685917       -0.368729
790.8                  -0.685179       -0.361966
791.2                  -0.684328       -0.355101
791.6                  -0.683356       -0.348133
792                    -0.682257       -0.341063
792.4                  -0.681023        -0.33389
792.8                  -0.679645       -0.326615
793.2                  -0.678115       -0.319239
793.6                  -0.676424       -0.311764
794                    -0.674564       -0.304192
794.4                  -0.672526       -0.296525
794.8                  -0.670301       -0.288767
795.2                   -0.66788       -0.280921
795.6                  -0.665254       -0.272992
796                    -0.662414       -0.264985
796.4                  -0.659352       -0.256906
796.8                  -0.656057       -0.248761
797.2                  -0.652522       -0.240556
797.6                  -0.648737       -0.232299
798                    -0.644696          -0.224
798.4                  -0.640388       -0.215665
798.8                  -0.635808       -0.207305
799.2                  -0.630946       -0.198931
799.6                  -0.625797       -0.190552
800                    -0.620354       -0.182179
800.4                   -0.61461       -0.173826
800.8                   -0.60856       -0.165503
801.2                  -0.602199       -0.157225
801.6                  -0.595523       -0.149004
802                    -0.588527       -0.140855
802.4                  -0.581209       -0.132791
802.8                  -0.573567       -0.124828
803.2                  -0.565598        -0.11698
803.6                  -0.557302       -0.109263
804                    -0.548679       -0.101692
804.4                  -0.539729      -0.0942839
804.8                  -0.530455      -0.0870542
805.2                  -0.520858      -0.0800191
805.6                  -0.510943      -0.0731949
806                    -0.500713      -0.0665978
806.4                  -0.490175       -0.060244
806.8                  -0.479333      -0.0541499
807.2                  -0.468194      -0.0483314
807.6                  -0.456768      -0.0428043
808                    -0.445063      -0.0375842
808.4                  -0.433088      -0.0326862
808.8                  -0.420855      -0.0281255
809.2                  -0.408375      -0.0239161
809.6                   -0.39566      -0.0200724
810                    -0.382724      -0.0166077
810.4                   -0.36958      -0.0135349
810.8                  -0.356245      -0.0108661
811.2                  -0.342732     -0.00861299
811.6                  -0.329059     -0.00678615
812                    -0.315243     -0.00539589
812.4                  -0.301301     -0.00445114
812.8                  -0.287251     -0.00396041
813.2                  -0.273113     -0.00393097
813.6                  -0.258905     -0.00436934
814                    -0.244647     -0.00528102
814.4                  -0.230359     -0.00667061
814.8                  -0.216062     -0.00854155
815.2                  -0.201776      -0.0108962
815.6                  -0.187522       -0.013736
816                    -0.173321      -0.0170612
816.4                  -0.159194      -0.0208711
816.8                  -0.145162      -0.0251637
817.2                  -0.131245      -0.0299361
817.6                  -0.117466      -0.0351842
818                    -0.103844      -0.0409028
818.4                 -0.0903995      -0.0470858
818.8                 -0.0771532      -0.0537257
819.2                 -0.0641247      -0.0608142
819.6                 -0.0513331       -0.068342
820                   -0.0387973      -0.0762987
820.4                 -0.0265356       -0.084673
820.8                 -0.0145657      -0.0934526
821.2                -0.00290447       -0.102624
821.6                 0.00843181       -0.112174
822                    0.0194275       -0.122087
822.4                   0.030068       -0.132348
822.8                  0.0403395        -0.14294
823.2                  0.0502288       -0.153846
823.6                  0.0597241       -0.165049
824                    0.0688141        -0.17653
824.4                  0.0774889       -0.188271
824.8                  0.0857392       -0.200253
825.2                  0.0935572       -0.212457
825.6                   0.100936       -0.224862
826                     0.107869       -0.237448
826.4                   0.114352       -0.250195
826.8                    0.12038       -0.263083
827.2                   0.125952       -0.276091
827.6                   0.131066         -0.2892
828                     0.135721       -0.302387
828.4                   0.139917       -0.315634
828.8                   0.143657        -0.32892
829.2                   0.146942       -0.342226
829.6                   0.149777       -0.355531
830                     0.152165       -0.368818
830.4                   0.154113       -0.382066
830.8                   0.155627       -0.395258
831.2                   0.156714       -0.408376
831.6                   0.157383       -0.421402
832                     0.157642       -0.434322
832.4                   0.157501       -0.447117
832.8                    0.15697       -0.459774
833.2                   0.156062       -0.472277
833.6                   0.154786       -0.484614
834                     0.153157       -0.496771
834.4                   0.151186       -0.508736
834.8                   0.148887       -0.520497
835.2                   0.146274       -0.532045
835.6                    0.14336        -0.54337
836                      0.14016       -0.554463
836.4                   0.136688       -0.565316
836.8                    0.13296       -0.575923
837.2                   0.128989       -0.586278
837.6                   0.124791       -0.596375
838                     0.120381        -0.60621
838.4                   0.115774       -0.615779
838.8                   0.110985       -0.625081
839.2                   0.106026       -0.634114
839.6                   0.100916       -0.642876
840                    0.0956652       -0.651368
840.4                  0.0902899        -0.65959